/*--------------------------------*- C++ -*----------------------------------*\
| =========                 |                                                 |
| \\      /  F ield         | OpenFOAM: The Open Source CFD Toolbox           |
|  \\    /   O peration     | Version:  2412                                  |
|   \\  /    A nd           | Website:  www.openfoam.com                      |
|    \\/     M anipulation  |                                                 |
\*---------------------------------------------------------------------------*/
FoamFile
{
    version     2.0;
    format      ascii;
    arch        "LSB;label=32;scalar=64";
    class       volScalarField;
    location    "0";
    object      Phi;
}
// * * * * * * * * * * * * * * * * * * * * * * * * * * * * * * * * * * * * * //

dimensions      [0 2 -1 0 0 0 0];

hey          20 ( 0 0 0 0 0 0 0 0 0 0 0 0 0 0 0 0 0 0 0 0);

internalField   nonuniform List<scalar> 
solution
2000
(
1.49006
1.48382
1.47282
1.45812
1.44047
1.42043
1.39843
1.37481
1.34982
1.32366
1.55284
1.54714
1.53708
1.52364
1.5075
1.48918
1.46907
1.44747
1.42463
1.40073
1.61969
1.61456
1.60551
1.59342
1.5789
1.56241
1.54432
1.52489
1.50435
1.48286
1.6902
1.68567
1.6777
1.66703
1.65423
1.63969
1.62373
1.60658
1.58844
1.56945
1.76394
1.76005
1.7532
1.74403
1.73303
1.72053
1.7068
1.69205
1.67644
1.66007
1.84045
1.83723
1.83154
1.82394
1.81481
1.80444
1.79305
1.7808
1.76783
1.75423
1.91926
1.91672
1.91225
1.90627
1.89908
1.89091
1.88194
1.87229
1.86206
1.85134
1.99988
1.99805
1.99482
1.9905
1.9853
1.9794
1.97291
1.96594
1.95854
1.95079
2.08181
2.0807
2.07873
2.0761
2.07294
2.06935
2.0654
2.06115
2.05665
2.05193
2.16454
2.16415
2.16346
2.16254
2.16143
2.16018
2.1588
2.15732
2.15575
2.1541
1.15432
1.1453
1.12942
1.1082
1.08275
1.05391
1.02229
0.988377
0.952552
0.915115
1.16075
1.15178
1.13599
1.11489
1.08959
1.06091
1.02947
0.995753
0.960134
0.922916
1.17358
1.16471
1.1491
1.12825
1.10324
1.07488
1.04379
1.01046
0.975247
0.938458
1.19273
1.18402
1.16868
1.14818
1.1236
1.09573
1.06517
1.03241
0.997795
0.961637
1.21809
1.20959
1.19461
1.17459
1.15058
1.12335
1.09349
1.06147
1.02764
0.992306
1.24952
1.24127
1.22674
1.20732
1.18402
1.15759
1.1286
1.0975
1.06463
1.03028
1.28684
1.27889
1.2649
1.24619
1.22374
1.19827
1.17032
1.14031
1.10857
1.07537
1.32982
1.32223
1.30886
1.29098
1.26953
1.24517
1.21844
1.18972
1.15931
1.12744
1.37822
1.37103
1.35837
1.34144
1.32112
1.29805
1.27272
1.2455
1.21667
1.18643
1.43174
1.425
1.41313
1.39726
1.37821
1.35659
1.33285
1.30735
1.28038
1.25218
0.876406
0.836259
0.795098
0.753066
0.710282
0.66685
0.622855
0.578372
0.533463
0.488185
0.442583
0.3967
0.350574
0.304239
0.257727
0.211067
0.164289
0.117419
0.0704854
0.0235133
0.884031
0.843337
0.801672
0.759168
0.71594
0.672084
0.627684
0.582811
0.537523
0.491874
0.445908
0.399666
0.353184
0.306495
0.259631
0.212622
0.165496
0.11828
0.0710003
0.0236837
0.899222
0.857448
0.814781
0.77134
0.727227
0.682531
0.637327
0.591676
0.545633
0.499244
0.45255
0.405589
0.358394
0.310998
0.263432
0.215724
0.167903
0.119995
0.072027
0.0240236
0.921874
0.878496
0.834343
0.789511
0.744086
0.698144
0.651744
0.604937
0.557767
0.510271
0.462487
0.414446
0.366183
0.317727
0.269109
0.220356
0.171496
0.122555
0.0735585
0.0245304
0.951831
0.906337
0.860228
0.81357
0.766428
0.71885
0.670878
0.622543
0.573877
0.52491
0.475672
0.426194
0.376508
0.326643
0.276627
0.226488
0.176252
0.125943
0.0755849
0.0252007
0.988889
0.940778
0.892265
0.843377
0.794137
0.744555
0.694642
0.644411
0.593881
0.543077
0.492026
0.440758
0.389302
0.337685
0.285936
0.234079
0.182138
0.130136
0.078093
0.0260304
1.03283
0.981596
0.930265
0.878778
0.827078
0.775126
0.722901
0.6704
0.617639
0.564639
0.511426
0.458026
0.404467
0.350774
0.296971
0.243079
0.189118
0.135109
0.0810685
0.0270149
1.08346
1.0286
0.974073
0.919618
0.865075
0.810356
0.755427
0.700283
0.644935
0.5894
0.533699
0.477854
0.421886
0.365813
0.309655
0.253429
0.19715
0.140834
0.0844961
0.0281495
1.14086
1.0818
1.0236
0.965691
0.907824
0.849902
0.791882
0.733747
0.675494
0.617127
0.558653
0.500083
0.441428
0.382699
0.323908
0.265068
0.206189
0.147282
0.0883587
0.029429
1.20535
1.14148
1.07864
1.01653
0.954811
0.89329
0.831859
0.770454
0.709039
0.647591
0.586098
0.524555
0.462964
0.401325
0.339645
0.277929
0.216184
0.154417
0.0926356
0.0308463
1.24771
1.18037
1.1142
1.04898
0.984449
0.920365
0.856572
0.792963
0.729465
0.666031
0.602627
0.539235
0.475839
0.412434
0.349015
0.285582
0.222135
0.158677
0.0952098
0.0317372
1.26228
1.19358
1.12612
1.05963
0.993885
0.928697
0.863909
0.799408
0.735112
0.67096
0.60691
0.542928
0.478995
0.415093
0.351211
0.287344
0.223484
0.159629
0.0957764
0.0319253
1.27531
1.20557
1.13705
1.06952
1.00277
0.936628
0.870959
0.805649
0.740615
0.675789
0.611122
0.546575
0.482118
0.417731
0.353395
0.289097
0.224827
0.160578
0.0963416
0.032113
1.28682
1.21634
1.14701
1.07863
1.01104
0.944089
0.877648
0.811616
0.745909
0.68046
0.615214
0.55013
0.485173
0.420317
0.355539
0.290822
0.226151
0.161514
0.0968992
0.0322983
1.29695
1.22595
1.156
1.08696
1.01868
0.951037
0.883929
0.817258
0.750946
0.684926
0.619145
0.553558
0.488128
0.422825
0.357623
0.292501
0.227441
0.162427
0.0974436
0.0324792
1.30589
1.23451
1.1641
1.09452
1.02567
0.957455
0.889772
0.822541
0.755689
0.689154
0.622882
0.556829
0.490957
0.425232
0.359628
0.294119
0.228686
0.163308
0.0979696
0.032654
1.31377
1.24212
1.17135
1.10135
1.03204
0.963338
0.895164
0.827446
0.760116
0.693118
0.626401
0.55992
0.493637
0.427519
0.361536
0.295662
0.229874
0.164151
0.0984728
0.0328213
1.32071
1.24887
1.17782
1.10748
1.0378
0.968693
0.900102
0.831961
0.764212
0.696802
0.629683
0.562812
0.496153
0.42967
0.363335
0.297119
0.230998
0.164949
0.0989493
0.0329798
1.32682
1.25484
1.18357
1.11297
1.04298
0.973535
0.904589
0.836084
0.767969
0.700194
0.632716
0.565494
0.498491
0.431675
0.365014
0.298481
0.23205
0.165696
0.0993961
0.0331284
1.33217
1.26009
1.18866
1.11785
1.0476
0.977881
0.908636
0.839819
0.771384
0.703289
0.635492
0.567956
0.500644
0.433524
0.366566
0.299742
0.233025
0.166389
0.0998106
0.0332664
1.33684
1.26469
1.19314
1.12215
1.05171
0.981752
0.912254
0.843171
0.774461
0.706086
0.638009
0.570193
0.502604
0.435212
0.367985
0.300896
0.233918
0.167024
0.100191
0.033393
1.34089
1.26869
1.19704
1.12593
1.05531
0.985168
0.915458
0.846149
0.777203
0.708586
0.640264
0.572202
0.504368
0.436733
0.369266
0.301939
0.234726
0.1676
0.100535
0.0335077
1.34437
1.27214
1.20042
1.1292
1.05845
0.988148
0.918263
0.848763
0.779616
0.710792
0.642258
0.573982
0.505934
0.438086
0.370406
0.302869
0.235447
0.168114
0.100843
0.0336102
1.34732
1.27507
1.2033
1.132
1.06114
0.990712
0.920681
0.851022
0.781708
0.712708
0.643993
0.575534
0.507302
0.439268
0.371405
0.303684
0.23608
0.168565
0.101113
0.0337002
1.34978
1.27752
1.20572
1.13435
1.06341
0.992877
0.922728
0.852939
0.783484
0.714338
0.645472
0.576859
0.508471
0.440281
0.37226
0.304383
0.236622
0.168952
0.101345
0.0337776
1.35179
1.27953
1.20769
1.13628
1.06527
0.994657
0.924413
0.85452
0.784953
0.715688
0.646699
0.577959
0.509443
0.441123
0.372973
0.304966
0.237075
0.169275
0.101539
0.0338421
1.35336
1.2811
1.20925
1.1378
1.06674
0.996066
0.925749
0.855775
0.78612
0.716762
0.647676
0.578837
0.510219
0.441796
0.373543
0.305432
0.237437
0.169533
0.101694
0.0338937
1.35453
1.28226
1.2104
1.13893
1.06784
0.997113
0.926744
0.85671
0.78699
0.717564
0.648406
0.579493
0.5108
0.4423
0.373969
0.305781
0.237709
0.169727
0.101811
0.0339326
1.35529
1.28303
1.21116
1.13967
1.06856
0.997806
0.927403
0.85733
0.787568
0.718096
0.648891
0.579929
0.511186
0.442636
0.374254
0.306014
0.23789
0.169857
0.101888
0.0339584
1.35567
1.28342
1.21154
1.14004
1.06892
0.998152
0.927732
0.857639
0.787857
0.718362
0.649133
0.580147
0.511379
0.442804
0.374396
0.30613
0.237981
0.169922
0.101927
0.0339713
2.1538
2.05122
1.94965
1.84973
1.7521
1.6574
1.56622
1.47909
1.39641
1.31855
2.15479
2.05439
1.95489
1.85691
1.76106
1.66796
1.57821
1.49242
1.41109
1.33415
2.15566
2.05718
1.95955
1.86333
1.76911
1.6775
1.5891
1.5045
1.42408
1.34765
2.15642
2.05968
1.96373
1.86911
1.77639
1.68615
1.59896
1.51531
1.43544
1.35933
2.15711
2.06193
1.96751
1.87435
1.783
1.69399
1.60783
1.5249
1.44544
1.36955
2.15772
2.06397
1.97094
1.87912
1.789
1.70108
1.61578
1.53343
1.45429
1.37856
2.15828
2.06583
1.97408
1.88346
1.79445
1.70747
1.6229
1.54104
1.46216
1.38652
2.15878
2.06754
1.97694
1.88742
1.79939
1.71324
1.6293
1.54785
1.46918
1.39356
2.15924
2.0691
1.97957
1.89103
1.80388
1.71846
1.63505
1.55396
1.47544
1.39979
2.15967
2.07054
1.98197
1.89434
1.80797
1.72318
1.64025
1.55945
1.48104
1.40528
2.16006
2.07187
1.98419
1.89736
1.8117
1.72748
1.64496
1.56439
1.48602
1.4101
2.16042
2.07309
1.98623
1.90014
1.81511
1.73139
1.64922
1.56884
1.49046
1.41433
2.16076
2.07422
1.98811
1.9027
1.81824
1.73496
1.65309
1.57284
1.49441
1.418
2.16107
2.07528
1.98986
1.90506
1.82111
1.73823
1.65661
1.57643
1.4979
1.42117
2.16137
2.07626
1.99148
1.90725
1.82377
1.74122
1.6598
1.57966
1.50096
1.42386
2.16165
2.07717
1.99299
1.90927
1.82621
1.74396
1.66269
1.58254
1.50364
1.42613
2.16191
2.07803
1.99439
1.91115
1.82846
1.74647
1.66531
1.5851
1.50595
1.42798
2.16217
2.07884
1.9957
1.9129
1.83054
1.74876
1.66767
1.58736
1.50792
1.42945
2.16241
2.07959
1.99693
1.91451
1.83246
1.75085
1.66978
1.58932
1.50956
1.43054
2.16265
2.0803
1.99806
1.91601
1.83421
1.75274
1.67165
1.59101
1.51087
1.43126
3.0892
3.0632
3.03835
3.01484
2.99294
2.97298
2.95539
2.94073
2.92977
2.92354
3.01161
2.98791
2.96524
2.94379
2.92381
2.9056
2.88954
2.87617
2.86616
2.86048
2.92906
2.90779
2.88744
2.86818
2.85024
2.83388
2.81947
2.80746
2.79847
2.79337
2.84213
2.82337
2.80543
2.78846
2.77267
2.75827
2.74559
2.73502
2.72711
2.72262
2.75124
2.7351
2.71969
2.70513
2.69158
2.67923
2.66836
2.6593
2.65252
2.64868
2.65688
2.6435
2.63073
2.61867
2.60746
2.59725
2.58825
2.58077
2.57517
2.57199
2.55961
2.5491
2.53908
2.52962
2.52083
2.51282
2.50578
2.49991
2.49552
2.49303
2.46005
2.4525
2.44531
2.43853
2.43222
2.42648
2.42143
2.41723
2.41409
2.4123
2.35883
2.35432
2.35002
2.34596
2.3422
2.33877
2.33575
2.33324
2.33136
2.3303
2.25662
2.25519
2.25381
2.25252
2.25132
2.25023
2.24927
2.24847
2.24788
2.24754
3.50318
3.46529
3.42906
3.39478
3.36283
3.3337
3.30802
3.28661
3.27059
3.26149
3.49522
3.45757
3.42156
3.38749
3.35574
3.32678
3.30125
3.27997
3.26405
3.25501
3.47936
3.44218
3.40662
3.37296
3.34159
3.31299
3.28776
3.26674
3.251
3.24207
3.45573
3.41924
3.38433
3.35128
3.32048
3.29239
3.26763
3.24698
3.23153
3.22276
3.42451
3.38891
3.35484
3.32259
3.29254
3.26513
3.24097
3.22082
3.20575
3.19719
3.38591
3.35137
3.31833
3.28706
3.25792
3.23135
3.20794
3.18842
3.17382
3.16552
3.34014
3.30683
3.27498
3.24487
3.21682
3.19126
3.16873
3.14996
3.13592
3.12794
3.28738
3.25548
3.22503
3.19626
3.16948
3.14509
3.12359
3.10568
3.09228
3.08467
3.2277
3.19749
3.16869
3.14148
3.11616
3.0931
3.07277
3.05584
3.04317
3.03598
3.16128
3.13319
3.1063
3.08088
3.05719
3.03561
3.01659
3.00074
2.98889
2.98216
4.42143
4.37182
4.32246
4.27336
4.22452
4.17597
4.12771
4.07977
4.03217
3.98492
3.93807
3.89164
3.84568
3.80023
3.75534
3.7111
3.66758
3.62487
3.58309
3.54239
4.42079
4.37086
4.32118
4.27175
4.22258
4.17369
4.1251
4.07682
4.02887
3.98129
3.93408
3.8873
3.84097
3.79514
3.74987
3.70522
3.66126
3.61809
3.57582
3.53458
4.41954
4.36896
4.31863
4.26854
4.21872
4.16916
4.1199
4.07094
4.02231
3.97404
3.92614
3.87864
3.83158
3.78501
3.73895
3.69349
3.64867
3.60459
3.56134
3.51904
4.4177
4.36615
4.31485
4.26378
4.21297
4.16242
4.11215
4.06219
4.01254
3.96323
3.91428
3.86572
3.81758
3.76988
3.72268
3.676
3.62991
3.58447
3.53977
3.49589
4.41529
4.36247
4.30988
4.25752
4.2054
4.15354
4.10194
4.05063
3.99962
3.94894
3.8986
3.84862
3.79904
3.74987
3.70115
3.65288
3.60512
3.5579
3.51128
3.46533
4.41236
4.35797
4.30379
4.24983
4.1961
4.14261
4.08937
4.03639
3.98369
3.9313
3.87922
3.82748
3.7761
3.7251
3.6745
3.62429
3.57448
3.52509
3.47611
3.42758
4.40896
4.3527
4.29665
4.2408
4.18516
4.12975
4.07456
4.01961
3.96491
3.91048
3.85633
3.80248
3.74895
3.69576
3.64291
3.5904
3.5382
3.48626
3.43452
3.38292
4.40512
4.34673
4.28852
4.2305
4.17269
4.11508
4.05767
4.00047
3.94348
3.88671
3.83017
3.77389
3.71786
3.66211
3.60663
3.55143
3.49645
3.4416
3.38672
3.33153
4.40091
4.34009
4.27947
4.21904
4.1588
4.09874
4.03885
3.97914
3.91959
3.86023
3.80104
3.74203
3.6832
3.62454
3.56606
3.50772
3.44948
3.39123
3.33274
3.2734
4.39636
4.33284
4.26957
4.2065
4.1436
4.08086
4.01826
3.9558
3.89348
3.83127
3.76919
3.70721
3.64532
3.58349
3.52168
3.45981
3.39779
3.3354
3.2723
3.20817
4.39199
4.32718
4.26255
4.19808
4.13372
4.06948
4.00533
3.94128
3.8773
3.81338
3.74951
3.68566
3.62178
3.55784
3.49374
3.42938
3.36459
3.29913
3.23273
3.16518
4.38819
4.3235
4.25885
4.19427
4.12976
4.0653
4.00089
3.93651
3.87215
3.80778
3.74339
3.67892
3.61435
3.54959
3.48457
3.41918
3.35324
3.28657
3.21892
3.15005
4.38444
4.31976
4.25508
4.19041
4.12574
4.06108
3.99642
3.93173
3.86701
3.80221
3.73733
3.6723
3.60709
3.54161
3.47579
3.40951
3.34263
3.27497
3.20633
3.13647
4.38073
4.31604
4.2513
4.18653
4.12172
4.05687
3.99197
3.92699
3.86193
3.79674
3.7314
3.66587
3.60008
3.53398
3.46747
3.40045
3.3328
3.26436
3.19496
3.12441
4.37707
4.31235
4.24755
4.18269
4.11774
4.05271
3.98758
3.92234
3.85696
3.79142
3.72568
3.65969
3.5934
3.52675
3.45966
3.39203
3.32375
3.2547
3.18474
3.11372
4.37349
4.30874
4.24388
4.17892
4.11385
4.04865
3.98332
3.91783
3.85217
3.7863
3.7202
3.65381
3.58708
3.51996
3.45238
3.38425
3.31547
3.24595
3.17558
3.10425
4.37001
4.30523
4.24032
4.17527
4.11007
4.04472
3.9792
3.91349
3.84758
3.78142
3.715
3.64826
3.58116
3.51364
3.44565
3.37711
3.30794
3.23806
3.16739
3.09583
4.36666
4.30186
4.23689
4.17176
4.10645
4.04096
3.97527
3.90937
3.84323
3.77682
3.71011
3.64307
3.57565
3.5078
3.43947
3.3706
3.30112
3.23096
3.16007
3.08837
4.36348
4.29865
4.23363
4.16842
4.10302
4.0374
3.97156
3.90548
3.83914
3.77251
3.70556
3.63826
3.57057
3.50244
3.43383
3.3647
3.29497
3.22461
3.15355
3.08176
4.36048
4.29562
4.23056
4.16529
4.09979
4.03407
3.96809
3.90186
3.83534
3.76851
3.70136
3.63384
3.56592
3.49756
3.42873
3.35938
3.28946
3.21894
3.14777
3.07592
4.35768
4.29281
4.22771
4.16238
4.0968
4.03097
3.96488
3.89851
3.83185
3.76486
3.69752
3.62982
3.56171
3.49316
3.42415
3.35463
3.28456
3.21392
3.14268
3.0708
4.35511
4.29022
4.22509
4.1597
4.09406
4.02815
3.96196
3.89547
3.82867
3.76154
3.69406
3.6262
3.55793
3.48923
3.42007
3.35041
3.28024
3.20951
3.13821
3.06632
4.35279
4.28789
4.22272
4.15729
4.09159
4.0256
3.95932
3.89274
3.82583
3.75858
3.69097
3.62298
3.55459
3.48576
3.41648
3.34672
3.27646
3.20567
3.13434
3.06246
4.35072
4.28581
4.22062
4.15515
4.08939
4.02335
3.95699
3.89033
3.82333
3.75598
3.68827
3.62018
3.55168
3.48275
3.41338
3.34354
3.27321
3.20238
3.13103
3.05916
4.34893
4.284
4.21879
4.15329
4.08749
4.0214
3.95498
3.88825
3.82117
3.75375
3.68595
3.61777
3.54919
3.48018
3.41074
3.34083
3.27046
3.1996
3.12824
3.05639
4.34742
4.28249
4.21726
4.15173
4.0859
4.01976
3.9533
3.88651
3.81937
3.75188
3.68402
3.61577
3.54712
3.47806
3.40855
3.33861
3.2682
3.19732
3.12596
3.05412
4.3462
4.28126
4.21602
4.15047
4.08461
4.01844
3.95194
3.88511
3.81793
3.75039
3.68248
3.61418
3.54548
3.47636
3.40682
3.33684
3.2664
3.19551
3.12416
3.05234
4.34529
4.28034
4.21508
4.14952
4.08364
4.01745
3.95092
3.88405
3.81684
3.74927
3.68132
3.61298
3.54425
3.4751
3.40553
3.33552
3.26507
3.19417
3.12282
3.05101
4.34467
4.27972
4.21446
4.14888
4.08299
4.01678
3.95024
3.88335
3.81612
3.74852
3.68054
3.61218
3.54343
3.47426
3.40467
3.33464
3.26419
3.19328
3.12193
3.05014
4.34436
4.27941
4.21414
4.14857
4.08267
4.01645
3.9499
3.883
3.81575
3.74814
3.68016
3.61179
3.54302
3.47384
3.40424
3.33421
3.26374
3.19284
3.12149
3.0497
3.09396
3.01562
2.93254
2.84509
2.75365
2.65876
2.56099
2.46096
2.35932
2.25672
3.07785
3.00051
2.91884
2.83277
2.7428
2.64953
2.55355
2.45549
2.35594
2.25551
3.06385
2.98708
2.90637
2.82154
2.73296
2.64121
2.54689
2.45059
2.35292
2.25442
3.05168
2.97528
2.89518
2.81134
2.72401
2.63366
2.54085
2.44618
2.35019
2.25343
3.04096
2.96484
2.88519
2.80213
2.71586
2.62677
2.53536
2.44217
2.34772
2.25253
3.03147
2.95556
2.87628
2.79384
2.70847
2.6205
2.53035
2.4385
2.34546
2.25171
3.02303
2.94726
2.86829
2.78638
2.70178
2.61478
2.52576
2.43514
2.34339
2.25095
3.01552
2.93983
2.86112
2.77966
2.69572
2.60958
2.52157
2.43206
2.34148
2.25024
3.00884
2.93317
2.85466
2.77359
2.69023
2.60484
2.51773
2.42923
2.33972
2.24959
3.00292
2.9272
2.84884
2.76811
2.68525
2.60053
2.51422
2.42663
2.33809
2.24898
2.99769
2.92186
2.8436
2.76313
2.68071
2.59658
2.51099
2.42423
2.33659
2.24842
2.99309
2.9171
2.83887
2.75862
2.67658
2.59297
2.50804
2.42202
2.33521
2.2479
2.98908
2.91286
2.83461
2.75453
2.67281
2.58966
2.50531
2.41998
2.33393
2.24742
2.9856
2.90911
2.83079
2.75081
2.66936
2.58663
2.50281
2.4181
2.33275
2.24698
2.98263
2.90581
2.82737
2.74745
2.66622
2.58384
2.50049
2.41636
2.33165
2.24658
2.98014
2.90294
2.82432
2.74441
2.66335
2.58128
2.49836
2.41476
2.33064
2.2462
2.9781
2.90047
2.82163
2.74168
2.66074
2.57894
2.4964
2.41327
2.3297
2.24586
2.9765
2.89839
2.81927
2.73924
2.65838
2.57679
2.49459
2.4119
2.32884
2.24555
2.97532
2.89668
2.81724
2.73707
2.65624
2.57483
2.49293
2.41064
2.32805
2.24527
2.97454
2.89533
2.81552
2.73517
2.65433
2.57306
2.49142
2.40948
2.32732
2.24501
)
;

boundaryField
{
    down
    {
        type            symmetryPlane;
    }
    right
    {
        type            fixedValue;
        value           uniform 0;
    }
    up
    {
        type            symmetryPlane;
    }
    left
    {
        type            zeroGradient;
    }
    cylinder
    {
        type            symmetry;
    }
    defaultFaces
    {
        type            empty;
    }
}


// ************************************************************************* //
