/*--------------------------------*- C++ -*----------------------------------*\
| =========                 |                                                 |
| \\      /  F ield         | OpenFOAM: The Open Source CFD Toolbox           |
|  \\    /   O peration     | Version:  2412                                  |
|   \\  /    A nd           | Website:  www.openfoam.com                      |
|    \\/     M anipulation  |                                                 |
\*---------------------------------------------------------------------------*/
FoamFile
{
    version     2.0;
    format      ascii;
    arch        "LSB;label=32;scalar=64";
    class       volScalarField;
    location    "0";
    object      Phi;
}
// * * * * * * * * * * * * * * * * * * * * * * * * * * * * * * * * * * * * * //

dimensions      [0 2 -1 0 0 0 0];

internalField   nonuniform List<scalar> 
2000
(
1.47881
1.47286
1.46233
1.44818
1.43109
1.41155
1.39001
1.367
1.34351
1.32199
1.53763
1.53236
1.52311
1.51077
1.49607
1.47959
1.46193
1.44377
1.426
1.40974
1.60019
1.59565
1.58769
1.57716
1.56474
1.55101
1.53649
1.52174
1.50726
1.49349
1.666
1.66216
1.65545
1.64664
1.6363
1.62493
1.61296
1.60076
1.58862
1.57673
1.73455
1.73138
1.72586
1.71862
1.71016
1.70086
1.69105
1.68097
1.67081
1.66067
1.80536
1.80282
1.79841
1.79264
1.78589
1.77846
1.77059
1.76245
1.75414
1.74574
1.87797
1.87604
1.87268
1.86828
1.86313
1.85745
1.8514
1.84511
1.83863
1.83202
1.95196
1.95061
1.94825
1.94516
1.94154
1.93754
1.93326
1.92879
1.92416
1.91941
2.02692
2.02613
2.02474
2.02293
2.02079
2.01843
2.0159
2.01325
2.01049
2.00765
2.10245
2.1022
2.10177
2.10121
2.10054
2.0998
2.09902
2.09819
2.09732
2.09643
1.171
1.16305
1.14911
1.13061
1.10862
1.08394
1.05721
1.02892
0.999461
0.969144
1.17667
1.16871
1.15476
1.13623
1.11419
1.08944
1.06263
1.03424
1.00468
0.974274
1.18801
1.18005
1.16607
1.14749
1.12535
1.10047
1.07349
1.0449
1.01513
0.98451
1.20503
1.19707
1.18307
1.16443
1.14218
1.11711
1.08986
1.06094
1.03081
0.999815
1.22774
1.2198
1.20582
1.18714
1.16478
1.13948
1.11188
1.08249
1.05178
1.02017
1.2561
1.24823
1.23434
1.21572
1.1933
1.1678
1.13978
1.10977
1.07822
1.04563
1.29008
1.28235
1.26868
1.25028
1.22798
1.2024
1.17401
1.14325
1.11053
1.07641
1.32956
1.32209
1.30883
1.2909
1.26904
1.24373
1.21526
1.18382
1.14965
1.11316
1.37437
1.36728
1.35468
1.33761
1.3167
1.29231
1.26452
1.23311
1.19767
1.15776
1.42425
1.41766
1.40599
1.3902
1.37091
1.34845
1.32284
1.29363
1.25943
1.21673
0.938326
0.905096
0.869642
0.832017
0.792304
0.750607
0.707044
0.661745
0.614843
0.566472
0.516767
0.465855
0.41386
0.360899
0.307084
0.252516
0.197293
0.141502
0.0852266
0.0285404
0.943397
0.910037
0.874375
0.836482
0.796455
0.754416
0.710496
0.664836
0.617579
0.568867
0.518836
0.467618
0.415338
0.362114
0.308057
0.253268
0.197843
0.141872
0.0854337
0.0286028
0.953488
0.919838
0.883732
0.845273
0.804597
0.761856
0.717214
0.670832
0.622871
0.573484
0.522816
0.471003
0.41817
0.364437
0.309912
0.254698
0.198889
0.142571
0.0858237
0.0287193
0.968508
0.934347
0.897493
0.858114
0.816405
0.772574
0.726829
0.679364
0.630363
0.579992
0.528403
0.475736
0.422117
0.367663
0.312481
0.256671
0.200324
0.143525
0.0863521
0.0288749
0.988346
0.953344
0.915329
0.874577
0.831383
0.786033
0.738793
0.689894
0.639543
0.587917
0.535171
0.481442
0.426855
0.37152
0.315539
0.259007
0.202013
0.144639
0.0869616
0.0290503
1.0129
0.976546
0.93678
0.894064
0.848843
0.801507
0.75238
0.70173
0.64977
0.59668
0.542607
0.487679
0.432007
0.375693
0.318831
0.261508
0.203808
0.14581
0.0875921
0.0292252
1.04214
1.0036
0.961205
0.915748
0.867871
0.818068
0.766707
0.714055
0.660314
0.605641
0.550159
0.493976
0.437184
0.379868
0.322109
0.263984
0.205571
0.146947
0.0881917
0.0293829
1.07616
1.03397
0.987653
0.938472
0.887276
0.834595
0.78076
0.725985
0.670414
0.614153
0.557288
0.49989
0.442026
0.38376
0.325155
0.266278
0.207197
0.147987
0.0887293
0.0295146
1.11524
1.06669
1.01456
0.960598
0.905566
0.849808
0.793475
0.736641
0.679347
0.621628
0.563514
0.505036
0.446231
0.38714
0.327808
0.268285
0.208631
0.148912
0.0892093
0.0296274
1.15931
1.09925
1.03924
0.979891
0.921026
0.86241
0.803861
0.745255
0.686515
0.627592
0.568465
0.509126
0.449584
0.389856
0.329969
0.26996
0.209872
0.14976
0.0896917
0.0297647
1.20595
1.1272
1.05881
0.994708
0.932691
0.871784
0.811481
0.751491
0.691637
0.63181
0.571942
0.511996
0.451954
0.391814
0.331586
0.271289
0.210951
0.150607
0.0902982
0.0300667
1.22462
1.14628
1.07502
1.00806
0.943672
0.880846
0.818984
0.757717
0.696811
0.63611
0.575516
0.514962
0.454411
0.393841
0.333247
0.272632
0.212009
0.151394
0.0908065
0.0302588
1.23372
1.15826
1.08693
1.01884
0.953091
0.888943
0.825891
0.763584
0.701778
0.640305
0.579048
0.517925
0.456885
0.395893
0.334929
0.273984
0.213058
0.152154
0.091275
0.0304208
1.23911
1.16613
1.09557
1.0273
0.960903
0.895943
0.832054
0.76895
0.706413
0.644284
0.582444
0.520807
0.459312
0.397916
0.336591
0.275318
0.214086
0.152888
0.0917188
0.0305702
1.24271
1.17158
1.10194
1.03389
0.967277
0.901871
0.837432
0.773747
0.710641
0.647974
0.585637
0.523547
0.46164
0.399869
0.338201
0.27661
0.215079
0.153594
0.092142
0.0307115
1.24531
1.17552
1.10672
1.03904
0.972444
0.906833
0.842055
0.777966
0.71443
0.651335
0.588584
0.526103
0.463831
0.40172
0.339733
0.277843
0.216027
0.154266
0.0925438
0.0308453
1.24726
1.17848
1.11038
1.04309
0.976632
0.910959
0.845991
0.78163
0.71778
0.654349
0.591262
0.52845
0.46586
0.403445
0.34117
0.279003
0.216919
0.154899
0.0929221
0.0309712
1.24878
1.18076
1.11324
1.04631
0.980032
0.914382
0.84932
0.784785
0.720708
0.657022
0.593663
0.530577
0.467714
0.405032
0.342497
0.280078
0.217749
0.155488
0.0932745
0.0310884
1.24998
1.18255
1.11549
1.0489
0.9828
0.917216
0.852122
0.787481
0.723246
0.659366
0.595793
0.53248
0.469386
0.406473
0.343708
0.281063
0.218512
0.156031
0.093599
0.0311965
1.25094
1.18397
1.11729
1.05097
0.985058
0.91956
0.854472
0.789772
0.725428
0.661404
0.597662
0.534165
0.470877
0.407765
0.3448
0.281954
0.219203
0.156524
0.0938944
0.0312949
1.2517
1.18509
1.11872
1.05265
0.986898
0.921493
0.856433
0.791706
0.72729
0.66316
0.599287
0.535641
0.472191
0.408911
0.345772
0.282751
0.219823
0.156967
0.0941601
0.0313834
1.25229
1.18598
1.11986
1.05399
0.988395
0.923082
0.858062
0.793328
0.728867
0.66466
0.600685
0.536919
0.473337
0.409914
0.346628
0.283454
0.220372
0.157359
0.0943959
0.0314621
1.25273
1.18666
1.12076
1.05507
0.989604
0.92438
0.859405
0.794677
0.730189
0.665927
0.601874
0.538013
0.474323
0.410782
0.34737
0.284067
0.220851
0.157703
0.0946024
0.0315309
1.25304
1.18718
1.12146
1.05592
0.990571
0.925429
0.8605
0.795787
0.731284
0.666984
0.602873
0.538937
0.475159
0.411521
0.348005
0.284591
0.221262
0.157998
0.0947801
0.0315903
1.25323
1.18754
1.12198
1.05658
0.991331
0.926264
0.861381
0.796686
0.732178
0.667851
0.603697
0.539702
0.475855
0.412138
0.348536
0.285032
0.221608
0.158247
0.0949301
0.0316404
1.2533
1.18778
1.12236
1.05707
0.991915
0.926913
0.862073
0.797398
0.732891
0.668547
0.60436
0.540321
0.476419
0.41264
0.34897
0.285392
0.221891
0.158451
0.0950531
0.0316815
1.25328
1.1879
1.12261
1.05742
0.992347
0.927402
0.862599
0.797944
0.73344
0.669085
0.604876
0.540804
0.476861
0.413034
0.34931
0.285676
0.222115
0.158612
0.0951502
0.031714
1.25318
1.18795
1.12276
1.05766
0.992648
0.92775
0.862977
0.798339
0.733839
0.669478
0.605253
0.541159
0.477186
0.413324
0.349562
0.285885
0.22228
0.158731
0.0952223
0.031738
1.25303
1.18793
1.12284
1.0578
0.992837
0.927972
0.863221
0.798595
0.734099
0.669735
0.605501
0.541391
0.4774
0.413516
0.349728
0.286024
0.222389
0.15881
0.0952699
0.031754
1.2529
1.1879
1.12287
1.05786
0.992927
0.92808
0.863341
0.798721
0.734227
0.669862
0.605623
0.541507
0.477506
0.41361
0.34981
0.286093
0.222444
0.158849
0.0952936
0.0317619
2.09551
2.00474
1.91456
1.82534
1.73734
1.6507
1.56536
1.48093
1.39639
1.30936
2.09475
2.0023
1.91052
1.81982
1.73052
1.64284
1.55685
1.47247
1.38951
1.30812
2.09415
2.00033
1.90726
1.8154
1.72516
1.63686
1.55074
1.46706
1.38622
1.30931
2.09369
1.99878
1.9047
1.81199
1.72112
1.63251
1.54658
1.4638
1.38484
1.31086
2.09337
1.99761
1.90278
1.80946
1.7182
1.62952
1.54392
1.462
1.38448
1.31232
2.09315
1.99679
1.90142
1.8077
1.71624
1.6276
1.54238
1.46118
1.38468
1.31361
2.09304
1.99625
1.90054
1.80658
1.71504
1.62654
1.54167
1.46103
1.38521
1.31475
2.09301
1.99596
1.90005
1.80599
1.71447
1.62613
1.54156
1.46132
1.38592
1.31575
2.09304
1.99588
1.89989
1.80582
1.71438
1.62621
1.54189
1.46193
1.38675
1.31665
2.09313
1.99595
1.89998
1.80599
1.71467
1.62667
1.54253
1.46273
1.38763
1.31744
2.09326
1.99615
1.90028
1.80641
1.71524
1.62739
1.54339
1.46367
1.38853
1.31814
2.09342
1.99645
1.90072
1.80701
1.716
1.62829
1.5444
1.46468
1.38942
1.31875
2.09359
1.99681
1.90127
1.80774
1.71689
1.62932
1.54548
1.46572
1.39028
1.31927
2.09377
1.9972
1.90188
1.80854
1.71786
1.63039
1.54659
1.46676
1.3911
1.3197
2.09395
1.99762
1.9025
1.80936
1.71884
1.63148
1.54768
1.46775
1.39184
1.32003
2.09413
1.99802
1.90312
1.81017
1.7198
1.63252
1.54872
1.46867
1.3925
1.32027
2.09428
1.99838
1.90369
1.81091
1.72068
1.63347
1.54966
1.46949
1.39306
1.32041
2.09441
1.9987
1.90418
1.81155
1.72143
1.63428
1.55046
1.47017
1.39351
1.32046
2.09451
1.99893
1.90454
1.81203
1.72199
1.63489
1.55106
1.47069
1.39383
1.32044
2.09456
1.99907
1.90475
1.8123
1.72231
1.63524
1.55141
1.47099
1.39402
1.32039
2.9582
2.93639
2.9127
2.88953
2.86787
2.84824
2.83107
2.81687
2.8063
2.80033
2.87092
2.85438
2.83638
2.81803
2.80022
2.78361
2.7688
2.75639
2.74708
2.74179
2.7875
2.77347
2.75877
2.74381
2.72912
2.71524
2.7027
2.69209
2.68406
2.67948
2.7045
2.69238
2.68002
2.66762
2.65547
2.64395
2.63348
2.62456
2.61779
2.6139
2.62074
2.61038
2.60002
2.58975
2.57976
2.57031
2.56171
2.55437
2.54877
2.54555
2.53582
2.52721
2.51871
2.51038
2.50234
2.49476
2.48787
2.48198
2.4775
2.47492
2.44964
2.44284
2.43618
2.4297
2.42349
2.41765
2.41237
2.40785
2.40441
2.40244
2.36233
2.3574
2.35259
2.34794
2.3435
2.33934
2.33559
2.33239
2.32995
2.32854
2.27414
2.27112
2.26819
2.26536
2.26267
2.26016
2.25789
2.25597
2.2545
2.25365
2.18539
2.18432
2.18328
2.18228
2.18133
2.18045
2.17965
2.17897
2.17845
2.17816
3.3054
3.27551
3.24645
3.21851
3.19209
3.16769
3.14593
3.12762
3.11382
3.10595
3.30042
3.27042
3.24124
3.21319
3.18668
3.1622
3.14038
3.12204
3.10822
3.10033
3.29046
3.26022
3.2308
3.20253
3.17582
3.15119
3.12926
3.11085
3.09699
3.0891
3.27556
3.2449
3.21507
3.18643
3.15943
3.13458
3.11251
3.09402
3.08013
3.07223
3.25571
3.22437
3.19392
3.16477
3.13737
3.11226
3.09005
3.0715
3.05761
3.04973
3.23084
3.19846
3.16711
3.13727
3.10942
3.08406
3.06177
3.04324
3.02943
3.0216
3.20071
3.16673
3.13415
3.10351
3.07524
3.04976
3.02754
3.0092
2.99558
2.98789
3.16464
3.12823
3.09413
3.06277
3.03435
3.00908
2.98727
2.96938
2.95615
2.94869
3.12076
3.08086
3.04543
3.01402
2.98622
2.96183
2.94093
2.92386
2.91127
2.90417
3.06256
3.01978
2.9855
2.95621
2.93054
2.90803
2.88871
2.87289
2.86119
2.8546
4.20105
4.15044
4.09948
4.04833
3.99715
3.94612
3.89539
3.84512
3.79549
3.74664
3.69874
3.65195
3.60644
3.56236
3.51986
3.47909
3.44019
3.40328
3.36844
3.33575
4.20265
4.15173
4.10044
4.04895
3.99743
3.94605
3.89497
3.84435
3.79434
3.74511
3.69683
3.64964
3.60372
3.55924
3.51635
3.47521
3.43596
3.39876
3.36369
3.33085
4.20583
4.15427
4.10233
4.05019
3.99801
3.94596
3.89419
3.84287
3.79214
3.74218
3.69313
3.64516
3.59845
3.55316
3.50948
3.46757
3.42763
3.38981
3.35425
3.32108
4.21049
4.158
4.10512
4.05203
3.9989
3.94588
3.89314
3.84083
3.78908
3.73806
3.68791
3.63881
3.59093
3.54445
3.49956
3.45648
3.41543
3.37662
3.34025
3.30651
4.2165
4.16279
4.10871
4.05442
4.0001
3.94591
3.89197
3.83842
3.78542
3.73308
3.68157
3.63103
3.58164
3.53358
3.48708
3.44238
3.39976
3.35949
3.32189
3.28724
4.22364
4.16847
4.11296
4.05729
4.00162
3.94608
3.8908
3.83589
3.78146
3.72765
3.67457
3.62236
3.57118
3.52123
3.47271
3.42591
3.38116
3.33885
3.29942
3.26334
4.23161
4.17475
4.11766
4.0605
4.0034
3.94647
3.88979
3.83346
3.77756
3.72219
3.66745
3.61344
3.56031
3.50819
3.45731
3.40793
3.36042
3.31528
3.27315
3.23482
4.23998
4.18128
4.12254
4.06388
4.00536
3.94707
3.88904
3.83135
3.77403
3.71715
3.66078
3.60497
3.54983
3.49544
3.44195
3.38959
3.33867
3.28972
3.24359
3.20155
4.24819
4.18759
4.12725
4.06718
4.00739
3.94788
3.88866
3.82974
3.77116
3.71293
3.65507
3.59761
3.54057
3.48397
3.42787
3.37232
3.31748
3.26369
3.2117
3.16324
4.25545
4.1931
4.13141
4.07019
4.00936
3.94887
3.88868
3.82879
3.76917
3.70983
3.65075
3.5919
3.53325
3.47476
3.41633
3.35783
3.29908
3.23985
3.17995
3.11998
4.26042
4.19709
4.13458
4.07264
4.01113
3.94999
3.88914
3.82856
3.76821
3.70805
3.64804
3.58814
3.52825
3.46825
3.40796
3.34709
3.28513
3.22111
3.15282
3.07426
4.26387
4.20012
4.13708
4.07458
4.01251
3.95078
3.88933
3.8281
3.76705
3.70611
3.64522
3.5843
3.52324
3.46186
3.39993
3.33706
3.27266
3.20573
3.13454
3.05632
4.26644
4.20245
4.13904
4.0761
4.01355
3.9513
3.8893
3.82747
3.76577
3.70411
3.64243
3.58062
3.51854
3.45603
3.39282
3.32855
3.26272
3.19461
3.12327
3.04786
4.26835
4.2042
4.14052
4.07724
4.01428
3.95158
3.88909
3.82672
3.76444
3.70214
3.63977
3.57719
3.51429
3.45089
3.38677
3.32162
3.25507
3.1867
3.11608
3.04308
4.26975
4.2055
4.14161
4.07804
4.01474
3.95166
3.88874
3.82591
3.76311
3.70026
3.6373
3.5741
3.51054
3.44649
3.38173
3.31607
3.24925
3.18104
3.11128
3.04005
4.27076
4.20642
4.14237
4.07858
4.015
3.95159
3.88829
3.82506
3.76182
3.69851
3.63505
3.57135
3.5073
3.44277
3.37762
3.31169
3.24483
3.17692
3.10794
3.03801
4.27147
4.20707
4.14288
4.0789
4.01508
3.95139
3.88779
3.82421
3.7606
3.69691
3.63306
3.56896
3.50453
3.43967
3.37427
3.30823
3.24145
3.17388
3.10555
3.03658
4.27194
4.20748
4.14319
4.07905
4.01504
3.95112
3.88725
3.82339
3.75948
3.69547
3.6313
3.5669
3.5022
3.43712
3.37157
3.3055
3.23886
3.17161
3.10381
3.03555
4.27223
4.20773
4.14335
4.07908
4.01491
3.95079
3.88671
3.82261
3.75845
3.69419
3.62978
3.56515
3.50025
3.43502
3.3694
3.30336
3.23686
3.1699
3.10253
3.03482
4.27238
4.20784
4.14339
4.07902
4.01471
3.95044
3.88618
3.82189
3.75753
3.69307
3.62847
3.56367
3.49863
3.4333
3.36766
3.30167
3.23531
3.16861
3.10158
3.0343
4.27244
4.20786
4.14335
4.0789
4.01448
3.95008
3.88567
3.82123
3.75671
3.6921
3.62735
3.56242
3.49729
3.43191
3.36627
3.30034
3.23412
3.16763
3.10088
3.03394
4.27242
4.20782
4.14326
4.07874
4.01423
3.94973
3.8852
3.82064
3.756
3.69126
3.6264
3.56139
3.49619
3.43079
3.36516
3.2993
3.23321
3.1669
3.10039
3.03372
4.27235
4.20773
4.14314
4.07856
4.01398
3.94939
3.88478
3.82011
3.75538
3.69055
3.62561
3.56053
3.4953
3.42989
3.36429
3.2985
3.23252
3.16636
3.10005
3.03361
4.27226
4.20762
4.143
4.07837
4.01374
3.94909
3.8844
3.81966
3.75486
3.68996
3.62496
3.55984
3.49458
3.42917
3.36361
3.29788
3.23201
3.16599
3.09984
3.03358
4.27215
4.20751
4.14286
4.0782
4.01352
3.94882
3.88408
3.81928
3.75442
3.68947
3.62443
3.55928
3.49401
3.42861
3.36308
3.29742
3.23164
3.16574
3.09973
3.03364
4.27205
4.2074
4.14273
4.07804
4.01333
3.94859
3.88381
3.81897
3.75406
3.68908
3.62401
3.55884
3.49357
3.42818
3.36269
3.29709
3.23138
3.16559
3.09971
3.03378
4.27196
4.2073
4.14261
4.07791
4.01317
3.9484
3.88359
3.81872
3.75378
3.68877
3.62368
3.55851
3.49323
3.42787
3.3624
3.29685
3.23122
3.16552
3.09976
3.03396
4.27188
4.20722
4.14252
4.0778
4.01305
3.94826
3.88342
3.81853
3.75358
3.68855
3.62345
3.55827
3.493
3.42764
3.36221
3.2967
3.23112
3.1655
3.09985
3.03419
4.27183
4.20716
4.14246
4.07773
4.01297
3.94817
3.88332
3.81841
3.75344
3.68841
3.6233
3.55811
3.49285
3.4275
3.36209
3.29661
3.23108
3.16552
3.09996
3.03443
4.2718
4.20713
4.14243
4.0777
4.01293
3.94812
3.88326
3.81835
3.75338
3.68833
3.62322
3.55804
3.49277
3.42743
3.36203
3.29657
3.23106
3.16554
3.10003
3.03461
2.97128
2.88459
2.80032
2.71611
2.63093
2.54442
2.45652
2.36737
2.27724
2.18648
2.97303
2.89186
2.8091
2.72489
2.63904
2.55147
2.46225
2.37161
2.27987
2.18743
2.97236
2.89557
2.81486
2.7313
2.64528
2.55706
2.46689
2.37508
2.28204
2.18823
2.97133
2.89739
2.8185
2.73578
2.64992
2.56137
2.47054
2.37786
2.2838
2.18889
2.97038
2.8982
2.82069
2.73878
2.65321
2.56455
2.47331
2.38
2.28518
2.18943
2.96959
2.89844
2.82189
2.74067
2.65543
2.56679
2.47532
2.38159
2.28623
2.18986
2.96893
2.89834
2.82243
2.74172
2.6568
2.56825
2.47668
2.38271
2.28698
2.19019
2.96838
2.89804
2.82251
2.74216
2.65751
2.5691
2.47752
2.38343
2.28749
2.19044
2.96792
2.89761
2.82226
2.74216
2.65771
2.56945
2.47793
2.38382
2.28779
2.19061
2.96753
2.89711
2.82179
2.74182
2.65754
2.56941
2.478
2.38394
2.28792
2.19072
2.9672
2.89655
2.82117
2.74125
2.65708
2.56909
2.47781
2.38385
2.28792
2.19079
2.96693
2.89597
2.82045
2.74051
2.65642
2.56855
2.47741
2.3836
2.28781
2.19081
2.96672
2.8954
2.81968
2.73967
2.65562
2.56786
2.47687
2.38323
2.28762
2.1908
2.96657
2.89484
2.81888
2.73878
2.65474
2.56708
2.47624
2.38279
2.28738
2.19077
2.96647
2.89432
2.81809
2.73787
2.65383
2.56626
2.47557
2.3823
2.28711
2.19073
2.96643
2.89384
2.81734
2.73699
2.65294
2.56544
2.47489
2.38181
2.28682
2.19067
2.96645
2.89343
2.81666
2.73618
2.6521
2.56467
2.47425
2.38134
2.28655
2.19061
2.96652
2.89309
2.81608
2.73548
2.65138
2.56401
2.47369
2.38093
2.28631
2.19055
2.96662
2.89284
2.81563
2.73494
2.65083
2.5635
2.47327
2.38061
2.28612
2.1905
2.96671
2.89269
2.81536
2.73463
2.65051
2.56321
2.47302
2.38043
2.28602
2.19047
)
;

boundaryField
{
    down
    {
        type            symmetryPlane;
    }
    right
    {
        type            fixedValue;
        value           uniform 0;
    }
    up
    {
        type            symmetryPlane;
    }
    left
    {
        type            zeroGradient;
    }
    cylinder
    {
        type            symmetry;
    }
    defaultFaces
    {
        type            empty;
    }
}


// ************************************************************************* //
